3
Step = 0
p0 0.0 0.0 0.0
p1 0.0 0.7211247851537042 0.7211247851537042
p2 0.7211247851537042 0.0 0.7211247851537042
3
Step = 1
p0 0.43185560108894494 0.5574686808548535 0.05932223753610488
p1 0.7966990566955836 1.2944192586646168 0.8194697917146572
p2 0.9348196976765974 0.3114864159416415 0.56345754105666
3
Step = 2
p0 1.430665839624636 0.15763438215369607 0.2009549700738691
p1 1.3529141206644768 0.3647546324142801 0.3012859623179329
p2 0.8220439654774503 0.19873577058945457 0.9400086379113453
